# vtk DataFile Version 3.0
Unstructured Grid York.vtk
ASCII
DATASET UNSTRUCTURED_GRID
POINTS 569 float
-25.00000000000001 100.0 -48.89612705619272
-25.000000000000018 162.5 -92.65909819429969
-25.00000000000001 131.25 -70.7776126252462
-25.00000000000001 100.0 -55.0
-25.000000000000018 146.09669426150134 -101.09669426150137
-25.00000000000001 123.04834713075067 -78.04834713075068
-25.00000000000001 93.89612705619271 -55.0
-25.000000000000014 128.9065039666783 -105.0
-25.00000000000001 111.40131551143551 -80.0
-25.000000000000007 100.0 1.5308084989341915e-15
-25.00000000000001 100.0 -32.597418037461814
-25.000000000000007 100.0 -16.298709018730904
-25.00000000000001 162.5 1.5308084989341915e-15
-25.000000000000014 162.5 -30.886366064766563
-25.000000000000014 162.5 -61.772732129533125
-25.000000000000018 150.0 -105.0
-3.0616169978683826e-16 -20.0 -25.0
-25.0 -20.0 -25.0
-25.000000000000007 -20.0 -105.0
-5.204748896376251e-15 -20.0 -105.0
-1.432264256912701e-14 128.9065039666783 -105.0
-1.5614246689128753e-14 150.0 -105.0
-25.000000000000018 162.5 -105.0
-1.6379650938595848e-14 162.5 -105.0
-1.5623988643848715e-14 162.5 -92.65909819429969
-9.950255243072245e-15 162.5 0.0
-6.123233995736766e-15 100.0 0.0
-9.117258270240202e-15 100.0 -48.89612705619272
-9.491012693391987e-15 100.0 -55.0
-9.117258270240202e-15 93.89612705619271 -55.0
-25.000000000000004 20.0 -55.0
-4.592425496802574e-15 20.0 -55.0
-25.0 20.0 -25.0
-2.7554552980815448e-15 20.0 -25.0
-1.5136229601254165e-14 146.09669426150134 -101.09669426150137
-1.2313621147323076e-14 123.04834713075067 -78.04834713075068
-1.2370623457044458e-14 131.25 -70.7776126252462
-1.1719950419683607e-14 111.40131551143551 -80.0
-25.000000000000007 131.25 1.5308084989341915e-15
-25.00000000000001 131.25 -47.185075083497466
-25.000000000000007 131.25 -23.59253754174873
-7.121242087237912e-15 100.0 -16.298709018730904
-8.119250178739057e-15 100.0 -32.597418037461814
-1.3732744176923225e-14 162.5 -61.772732129533125
-1.1841499709997736e-14 162.5 -30.886366064766563
-8.036744619404505e-15 131.25 0.0
-1.092599717783114e-14 131.25 -47.185075083497466
-9.481370898617823e-15 131.25 -23.59253754174874
-25.0 -1.5308084989341915e-15 -25.0
-25.000000000000004 20.0 -48.896127056192725
-25.000000000000004 -20.0 -76.90442858458096
-25.000000000000004 -1.5308084989341917e-15 -62.90027782038683
-25.000000000000007 -16.472223955976915 -91.47222395597689
-25.000000000000004 1.763888022011541 -73.23611197798844
-25.000000000000004 26.103872943807275 -55.0
-25.000000000000007 -8.906503966678288 -105.0
-25.000000000000004 8.598684488564485 -80.0
-25.000000000000007 -20.0 -95.0
-4.592425496802574e-15 -20.0 -95.0
-4.592425496802573e-15 -16.472223955976915 -91.47222395597689
-3.484391316170811e-15 -20.0 -76.90442858458096
-4.218671073650789e-15 20.0 -48.896127056192725
-3.8515311949108e-15 -2.3583826748318457e-31 -62.90027782038683
-1.5308084989341915e-15 -9.373498641636611e-32 -25.0
-4.5924254968025736e-15 1.7638880220115425 -73.23611197798844
-5.884029616804315e-15 -8.906503966678287 -105.0
-4.96617991995436e-15 26.103872943807275 -55.0
-5.425104768379338e-15 8.598684488564487 -80.0
-7.733565486811587e-15 71.2987090187309 -55.0
-6.3498727033829735e-15 48.70129098126908 -55.0
-25.000000000000007 48.701290981269096 -55.0
-25.000000000000007 71.2987090187309 -55.0
-8.696900600911882e-15 37.03116534444058 -105.0
-1.1509771585019446e-14 82.96883465555943 -105.0
-7.523386652147426e-15 42.86622816285481 -80.0
-9.621668535915515e-15 77.13377183714516 -79.99999999999999
-25.00000000000001 82.96883465555943 -105.0
-25.00000000000001 37.03116534444058 -105.0
-25.000000000000007 42.86622816285484 -80.0
-25.000000000000007 77.13377183714518 -79.99999999999999
-2.1431318985078682e-15 10.0 -25.0
-1.5308084989341915e-15 -9.373498641636611e-32 -25.0
-9.184850993605148e-16 -10.0 -25.0
-8.333333333333334 -20.0 -25.0
-16.666666666666668 -20.0 -25.0
-25.0 -10.000000000000002 -25.0
-25.0 -1.5308084989341915e-15 -25.0
-25.0 9.999999999999998 -25.0
-16.666666666666664 20.0 -25.0
-8.333333333333336 20.0 -25.0
-8.333333333333334 10.0 -25.0
-8.333333333333334 2.7911439930759278e-14 -25.0
-8.333333333333336 -10.0 -25.0
-16.666666666666664 9.999999999999998 -25.0
-16.666666666666668 -1.0205389992894611e-15 -25.0
-16.666666666666668 -10.000000000000002 -25.0
4.286263797015737e-16 -20.0 -13.0
6.123233995736777e-17 -20.0 -19.0
-25.0 -20.0 -12.999999999999998
-16.666666666666664 -20.0 -12.999999999999998
-8.33333333333333 -20.0 -13.0
-25.0 -20.0 -19.0
-16.666666666666664 -20.0 -19.0
-8.333333333333332 -20.0 -19.0
-2.0206672185931327e-15 20.0 -13.0
-2.3880612583373385e-15 20.0 -19.0
-1.4083438190194562e-15 10.0 -13.0
-7.960204194457795e-16 -4.874219293651037e-32 -13.0
-1.8369701987210292e-16 -10.0 -13.0
-5.510910596163089e-16 -10.0 -19.0
-1.1634144591899855e-15 -7.123858967643823e-32 -19.0
-1.775737858763662e-15 10.0 -19.0
-25.0 20.0 -12.999999999999998
-8.333333333333336 20.0 -13.0
-16.666666666666668 20.0 -12.999999999999998
-25.0 9.999999999999998 -12.999999999999998
-25.0 -1.5308084989341915e-15 -12.999999999999998
-25.0 -10.000000000000002 -12.999999999999998
-16.666666666666664 -10.000000000000002 -12.999999999999998
-8.333333333333332 -10.0 -13.0
-16.666666666666664 2.7401170431114548e-14 -12.999999999999998
-8.333333333333332 -5.102694996447305e-16 -13.0
-16.666666666666668 9.999999999999998 -12.999999999999998
-8.333333333333334 9.999999999999986 -13.0
-25.0 20.0 -19.0
-25.0 9.999999999999998 -19.0
-25.0 -1.5308084989341915e-15 -19.0
-25.0 -10.000000000000002 -19.0
-8.333333333333337 20.0 -19.0
-16.666666666666668 20.0 -19.0
-16.666666666666668 10.000000000000012 -19.0
-16.666666666666668 -1.0205389992894611e-15 -19.0
-16.666666666666664 -10.00000000000003 -19.0
-8.333333333333337 10.000000000000014 -19.0
-8.333333333333334 -5.102694996447306e-16 -19.0
-8.333333333333334 -10.0 -19.0
4.2862637970157356e-16 -12.0 -5.0
4.286263797015736e-16 -16.0 -9.0
-17.0 -12.000000000000002 -4.999999999999999
-5.666666666666666 -12.0 -5.0
-11.333333333333334 -12.0 -4.999999999999999
-21.0 -16.0 -8.999999999999998
-6.999999999999999 -16.0 -9.0
-13.999999999999998 -16.0 -9.0
-17.0 11.999999999999998 -4.999999999999999
-17.0 -6.000000000000001 -4.999999999999999
-17.0 -1.0409497792752501e-15 -4.999999999999999
-17.0 5.999999999999999 -4.999999999999999
-21.0 15.999999999999998 -8.999999999999998
-21.0 7.999999999999999 -8.999999999999998
-21.0 -1.2858791391047208e-15 -8.999999999999998
-21.0 -8.000000000000002 -8.999999999999998
-1.0409497792752501e-15 12.0 -5.0
-1.5308084989341915e-15 16.0 -9.0
-11.333333333333332 12.0 -4.999999999999999
-5.666666666666667 12.0 -5.0
-7.0000000000000036 16.0 -9.0
-14.000000000000002 16.0 -9.0
-6.735557395310443e-16 6.0 -5.0
-3.061616997868383e-16 -1.8746997283273223e-32 -5.0
6.123233995736762e-17 -6.0 -5.0
-6.123233995736767e-17 -8.0 -9.0
-5.51091059616309e-16 -3.3744595109891796e-32 -9.0
-1.0409497792752503e-15 8.0 -9.0
-11.333333333333334 -6.000000000000001 -4.999999999999999
-5.666666666666667 -6.0 -5.0
-11.333333333333332 -6.939665195168334e-16 -4.999999999999999
-5.666666666666667 -3.4698325975841675e-16 -5.0
-11.333333333333332 5.999999999999999 -4.999999999999999
-5.666666666666666 6.0 -5.0
-14.0 -8.000000000000028 -9.000000000000007
-14.0 -8.572527594031472e-16 -9.0
-14.0 7.999999999999999 -9.0
-6.999999999999999 -8.0 -9.0
-7.000000000000001 -4.2862637970157366e-16 -8.999999999999993
-7.0000000000000036 8.0 -8.999999999999993
-24.999999999999996 20.0 48.896127056192725
-24.999999999999996 -20.0 76.90442858458096
1.7693774753560826e-15 20.0 48.896127056192725
5.933684914465517e-15 -20.0 76.90442858458096
3.0616169978683826e-16 20.0 25.0
2.7554552980815448e-15 -20.0 25.0
-25.0 20.0 25.0
-25.0 -20.0 25.0
-24.999999999999996 -1.5308084989341913e-15 62.90027782038683
3.8515311949108e-15 2.3583826748318457e-31 62.90027782038683
1.5308084989341915e-15 9.373498641636611e-32 25.0
-25.0 -1.5308084989341915e-15 25.0
-25.0 -20.0 13.000000000000002
2.0206672185931327e-15 -20.0 13.0
-4.286263797015737e-16 20.0 13.0
-25.0 20.0 13.000000000000002
1.0409497792752501e-15 -12.0 5.0
-17.0 -12.000000000000002 5.000000000000001
-17.0 11.999999999999998 5.000000000000001
-4.2862637970157356e-16 12.0 5.0
-16.666666666666664 -20.0 13.000000000000002
-8.33333333333333 -20.0 13.0
1.8369701987210292e-16 10.0 13.0
7.960204194457795e-16 4.874219293651037e-32 13.0
1.4083438190194562e-15 -10.0 13.0
-8.333333333333336 20.0 13.0
-16.666666666666668 20.0 13.000000000000002
-25.0 9.999999999999998 13.000000000000002
-25.0 -1.5308084989341915e-15 13.000000000000002
-25.0 -10.000000000000002 13.000000000000002
1.5308084989341915e-15 -16.0 9.0
-5.666666666666666 -12.0 5.0
-11.333333333333334 -12.0 5.000000000000001
-21.0 -16.0 9.000000000000002
-17.0 -6.000000000000001 5.000000000000001
-17.0 -1.0409497792752501e-15 5.000000000000001
-17.0 5.999999999999999 5.000000000000001
-21.0 15.999999999999998 9.000000000000002
-4.286263797015736e-16 16.0 9.0
-11.333333333333332 12.0 5.000000000000001
-5.666666666666667 12.0 5.0
-6.123233995736762e-17 6.0 5.0
3.061616997868383e-16 1.8746997283273223e-32 5.0
6.735557395310443e-16 -6.0 5.0
-16.666666666666664 -10.000000000000002 13.000000000000002
-8.333333333333332 -10.0 13.0
-16.666666666666664 2.7401170431114548e-14 13.000000000000002
-8.333333333333332 -5.102694996447305e-16 13.0
-16.666666666666668 9.999999999999998 13.000000000000002
-8.333333333333334 9.999999999999986 13.0
-6.999999999999997 -16.0 9.0
-13.999999999999998 -16.0 9.0
-21.0 7.999999999999999 9.000000000000002
-21.0 -1.2858791391047208e-15 9.000000000000002
-21.0 -8.000000000000002 9.000000000000002
-7.000000000000002 16.0 9.0
-14.000000000000002 16.0 9.0
1.0409497792752503e-15 -8.0 9.0
[...]
CELL_DATA 296
SCALARS scalars float
LOOKUP_TABLE default
2
2
2
2
2
2
2
2
2
2
2
2
2
2
2
2
2
2
2
2
2
2
2
2
2
2
2
2
2
2
2
2
2
2
2
2
2
2
2
2
2
2
2
2
2
2
2
2
2
2
2
2
2
2
2
2
2
2
2
2
2
2
2
2
2
2
2
2
2
2
2
2
2
2
2
2
2
2
2
2
2
2
2
2
2
2
2
2
2
2
2
2
2
2
2
2
2
2
2
2
2
2
2
2
2
2
2
2
2
2
2
2
2
2
2
2
2
2
2
2
2
2
2
2
2
2
2
2
2
2
2
2
2
2
2
2
2
2
2
2
2
2
2
2
2
2
2
2
2
2
2
2
2
2
2
2
2
2
2
2
2
2
2
2
2
2
2
2
2
2
2
2
2
2
2
2
2
2
2
2
2
2
2
2
2
2
2
2
2
2
2
2
2
2
2
2
2
2
2
2
2
2
2
2
2
2
2
2
2
2
2
2
2
2
2
2
2
2
2
2
2
2
2
2
2
2
2
2
2
2
2
2
2
2
2
2
2
2
2
2
2
2
2
2
2
2
2
2
2
2
2
2
2
2
2
2
2
2
2
2
2
2
2
2
2
2
2
2
2
2
2
2
2
2
2
2
2
2
2
2
2
2
2
2
2
2
2
2
3
3
3
3
3
3
3
3
