# vtk DataFile Version 2.0
step 0 time 0.000000e+00 normalized time 0.000000e+00, generated by extract_edges.py
ASCII
DATASET UNSTRUCTURED_GRID

POINTS 95 float
2.450000e-02 0.000000e+00 3.000000e-02
2.403394e-02 4.755999e-03 3.000000e-02
2.264790e-02 9.344660e-03 3.000000e-02
2.039284e-02 1.357874e-02 3.000000e-02
1.733760e-02 1.731063e-02 3.000000e-02
1.362254e-02 2.036361e-02 3.000000e-02
9.380815e-03 2.263295e-02 3.000000e-02
4.777350e-03 2.402971e-02 3.000000e-02
0.000000e+00 2.450000e-02 3.000000e-02
8.220000e-02 0.000000e+00 3.000000e-02
8.202463e-02 5.366514e-03 3.000000e-02
8.149910e-02 1.071156e-02 3.000000e-02
8.062885e-02 1.599465e-02 3.000000e-02
7.941476e-02 2.121642e-02 3.000000e-02
7.786132e-02 2.635252e-02 3.000000e-02
7.597491e-02 3.137919e-02 3.000000e-02
7.376353e-02 3.627371e-02 3.000000e-02
7.123670e-02 4.101430e-02 3.000000e-02
6.840533e-02 4.558016e-02 3.000000e-02
6.529331e-02 4.993620e-02 3.000000e-02
6.189552e-02 5.409053e-02 3.000000e-02
5.816938e-02 5.807894e-02 3.000000e-02
5.424284e-02 6.176208e-02 3.000000e-02
5.008335e-02 6.518051e-02 3.000000e-02
4.570871e-02 6.831950e-02 3.000000e-02
4.113767e-02 7.116553e-02 3.000000e-02
3.638985e-02 7.370630e-02 3.000000e-02
3.148565e-02 7.593085e-02 3.000000e-02
2.644622e-02 7.782954e-02 3.000000e-02
2.129329e-02 7.939418e-02 3.000000e-02
1.604912e-02 8.061802e-02 3.000000e-02
1.073641e-02 8.149582e-02 3.000000e-02
5.378178e-03 8.202387e-02 3.000000e-02
0.000000e+00 8.220000e-02 3.000000e-02
2.450000e-02 0.000000e+00 1.279810e-01
2.403394e-02 4.755999e-03 1.279810e-01
2.264790e-02 9.344660e-03 1.279810e-01
2.039284e-02 1.357874e-02 1.279810e-01
1.733759e-02 1.731063e-02 1.279810e-01
1.362254e-02 2.036361e-02 1.279810e-01
9.380815e-03 2.263295e-02 1.279810e-01
4.777350e-03 2.402971e-02 1.279810e-01
1.500192e-18 2.450000e-02 1.279810e-01
8.220000e-02 0.000000e+00 1.279810e-01
8.202463e-02 5.366514e-03 1.279810e-01
8.149910e-02 1.071156e-02 1.279810e-01
8.062885e-02 1.599465e-02 1.279810e-01
7.941476e-02 2.121642e-02 1.279810e-01
7.786132e-02 2.635252e-02 1.279810e-01
7.597491e-02 3.137919e-02 1.279810e-01
7.376353e-02 3.627371e-02 1.279810e-01
7.123670e-02 4.101430e-02 1.279810e-01
6.840533e-02 4.558016e-02 1.279810e-01
6.529331e-02 4.993620e-02 1.279810e-01
6.189552e-02 5.409053e-02 1.279810e-01
5.816938e-02 5.807894e-02 1.279810e-01
5.424284e-02 6.176208e-02 1.279810e-01
5.008335e-02 6.518051e-02 1.279810e-01
4.570871e-02 6.831950e-02 1.279810e-01
4.113767e-02 7.116553e-02 1.279810e-01
3.638985e-02 7.370630e-02 1.279810e-01
3.148565e-02 7.593085e-02 1.279810e-01
2.644622e-02 7.782954e-02 1.279810e-01
2.129329e-02 7.939418e-02 1.279810e-01
1.604912e-02 8.061802e-02 1.279810e-01
1.073641e-02 8.149582e-02 1.279810e-01
5.378178e-03 8.202387e-02 1.279810e-01
5.033298e-18 8.220000e-02 3.612381e-02
5.033298e-18 8.220000e-02 1.279810e-01
0.000000e+00 7.739167e-02 1.279810e-01
0.000000e+00 2.930833e-02 1.279810e-01
2.450000e-02 0.000000e+00 0.000000e+00
2.403394e-02 4.755999e-03 0.000000e+00
2.264790e-02 9.344660e-03 0.000000e+00
2.039284e-02 1.357874e-02 0.000000e+00
2.039284e-02 1.357874e-02 2.400000e-02
1.733759e-02 1.731063e-02 0.000000e+00
1.733759e-02 1.731063e-02 2.400000e-02
0.000000e+00 0.000000e+00 0.000000e+00
1.362254e-02 2.036361e-02 0.000000e+00
1.362254e-02 2.036361e-02 2.400000e-02
9.380815e-03 2.263295e-02 0.000000e+00
4.777350e-03 2.402971e-02 0.000000e+00
0.000000e+00 2.450000e-02 0.000000e+00
2.450000e-02 0.000000e+00 1.579810e-01
2.403394e-02 4.755999e-03 1.579810e-01
2.264790e-02 9.344660e-03 1.579810e-01
2.039284e-02 1.357874e-02 1.579810e-01
1.733759e-02 1.731063e-02 1.579810e-01
0.000000e+00 0.000000e+00 1.579810e-01
1.362254e-02 2.036361e-02 1.579810e-01
9.380815e-03 2.263295e-02 1.579810e-01
4.777350e-03 2.402971e-02 1.579810e-01
0.000000e+00 2.450000e-02 1.339810e-01
0.000000e+00 2.450000e-02 1.579810e-01

CELLS 141 423
2 0 1 
2 34 35 
2 1 2 
2 35 36 
2 2 3 
2 36 37 
2 3 4 
2 37 38 
2 78 89 
2 7 8 
2 41 42 
2 4 5 
2 38 39 
2 5 6 
2 39 40 
2 6 7 
2 40 41 
2 71 72 
2 78 71 
2 71 0 
2 72 1 
2 72 73 
2 73 2 
2 73 74 
2 74 75 
2 75 3 
2 74 76 
2 76 77 
2 75 77 
2 77 4 
2 83 78 
2 82 83 
2 83 8 
2 82 7 
2 76 79 
2 79 80 
2 77 80 
2 80 5 
2 79 81 
2 81 6 
2 81 82 
2 34 84 
2 35 85 
2 84 85 
2 89 84 
2 36 86 
2 85 86 
2 37 87 
2 86 87 
2 38 88 
2 87 88 
2 94 89 
2 42 93 
2 41 92 
2 93 94 
2 92 94 
2 39 90 
2 88 90 
2 40 91 
2 90 91 
2 91 92 
2 9 10 
2 0 9 
2 9 43 
2 10 44 
2 43 44 
2 34 43 
2 10 11 
2 11 45 
2 44 45 
2 11 12 
2 12 46 
2 45 46 
2 12 13 
2 13 47 
2 46 47 
2 13 14 
2 14 48 
2 47 48 
2 14 15 
2 15 49 
2 48 49 
2 15 16 
2 16 50 
2 49 50 
2 16 17 
2 17 51 
2 50 51 
2 17 18 
2 18 52 
2 51 52 
2 18 19 
2 19 53 
2 52 53 
2 19 20 
2 20 54 
2 53 54 
2 20 21 
2 21 55 
2 54 55 
2 21 22 
2 22 56 
2 55 56 
2 22 23 
2 23 57 
2 56 57 
2 23 24 
2 24 58 
2 57 58 
2 24 25 
2 25 59 
2 58 59 
2 25 26 
2 26 60 
2 59 60 
2 26 27 
2 27 61 
2 60 61 
2 27 28 
2 28 62 
2 61 62 
2 28 29 
2 29 63 
2 62 63 
2 29 30 
2 30 64 
2 63 64 
2 30 31 
2 31 65 
2 64 65 
2 31 32 
2 32 66 
2 65 66 
2 33 8 
2 32 33 
2 33 67 
2 67 68 
2 68 69 
2 66 68 
2 69 70 
2 70 42 

CELL_TYPES 141
3
3
3
3
3
3
3
3
3
3
3
3
3
3
3
3
3
3
3
3
3
3
3
3
3
3
3
3
3
3
3
3
3
3
3
3
3
3
3
3
3
3
3
3
3
3
3
3
3
3
3
3
3
3
3
3
3
3
3
3
3
3
3
3
3
3
3
3
3
3
3
3
3
3
3
3
3
3
3
3
3
3
3
3
3
3
3
3
3
3
3
3
3
3
3
3
3
3
3
3
3
3
3
3
3
3
3
3
3
3
3
3
3
3
3
3
3
3
3
3
3
3
3
3
3
3
3
3
3
3
3
3
3
3
3
3
3
3
3
3
3

POINT_DATA 95

SCALARS node_groups int 1
LOOKUP_TABLE default
0
0
0
0
0
0
0
0
0
0
0
0
0
0
0
0
0
0
0
0
0
0
0
0
0
0
0
0
0
0
0
0
0
0
0
0
0
0
0
0
0
0
0
0
0
0
0
0
0
0
0
0
0
0
0
0
0
0
0
0
0
0
0
0
0
0
0
0
0
0
0
0
0
0
0
0
0
0
0
0
0
0
0
0
0
0
0
0
0
0
0
0
0
0
0

CELL_DATA 141
SCALARS mat_id int 1
LOOKUP_TABLE default
1
1
1
1
1
1
1
1
1
1
1
1
1
1
1
1
1
1
1
1
1
1
1
1
1
1
1
1
1
1
1
1
1
1
1
1
1
1
1
1
1
1
1
1
1
1
1
1
1
1
1
1
1
1
1
1
1
1
1
1
1
1
1
1
1
1
1
1
1
1
1
1
1
1
1
1
1
1
1
1
1
1
1
1
1
1
1
1
1
1
1
1
1
1
1
1
1
1
1
1
1
1
1
1
1
1
1
1
1
1
1
1
1
1
1
1
1
1
1
1
1
1
1
1
1
1
1
1
1
1
1
1
1
1
1
1
1
1
1
1
1
