# vtk DataFile Version 5.1
vtk output
ASCII
DATASET POLYDATA
POINTS 24 float
-0.005 -0.005 -0.005 -0.005 -0.005 0.005 -0.005 0.005 0.005
-0.005 0.005 -0.005 -0.005 -0.005 0.005 0.005 -0.005 0.005
0.005 0.005 0.005 -0.005 0.005 0.005 -0.005 -0.005 0.005
0.005 -0.005 0.005 0.005 0.005 0.005 -0.005 0.005 0.005
-0.005 -0.005 0.005 0.005 -0.005 0.005 0.005 0.005 0.005
-0.005 0.005 0.005 -0.005 0.005 -0.005 -0.005 0.005 0.005
0.005 0.005 0.005 0.005 0.005 -0.005 0.005 -0.005 -0.005
0.005 0.005 -0.005 0.005 0.005 0.005 0.005 -0.005 0.005

POLYGONS 7 24
OFFSETS vtktypeint64
0 4 8 12 16 20 24
CONNECTIVITY vtktypeint64
0 1 2 3 4 5 6 7 8
9 10 11 12 13 14 15 16 17
18 19 20 21 22 23

CELL_DATA 6
COLOR_SCALARS Radia_colours 3
-1.0 -1.0 -1.0 -1.0 -1.0 -1.0 -1.0 -1.0 -1.0
-1.0 -1.0 -1.0 -1.0 -1.0 -1.0 -1.0 -1.0 -1.0
